     516
 i =        0, time =        0.000, E =     -2597.9532179882
  F         7.7113440249       19.2554509126        7.2632086097
  F         7.3678467779       17.9088066668        5.5099995035
  F         6.0194562888       17.8506126290        7.2007269386
  O         4.7065608395       19.4088701970        5.4433934959
  O         6.4846140464       20.8342246837        5.3561573420
  C         5.9002367659       19.7901961127        5.6889973698
  C         6.7522190255       18.7216905744        6.4477768850
  F         5.3774699899       11.7221248453        5.0339471656
  F         6.1658690298       12.5993967547        6.8832146228
  F         6.6979461411       13.4676217368        4.9516508465
  O         3.3444726030       13.2096365192        6.0746742534
  O         4.5998859803       15.0579097880        5.6736070427
  C         4.4112230777       13.8230859015        5.7930466237
  C         5.6695622922       12.9048925929        5.6462766907
  O        10.6214164169       19.9571004732       10.3987673748
  H        10.9404973664       19.2794523022        9.7779564279
  H         9.6749651848       19.6523040784       10.6843071903
  O         0.6219635461       10.9116784850        8.2337903343
  H         0.5135262414       11.7760136382        8.6640156005
  H         0.7695653600       10.2662366923        8.9526212314
  N        -0.0930596688       13.3595142744        1.4607055619
  N        -0.5620124262       13.2498958073        4.5372937534
  N        -3.4685578989       12.8475855560        3.8337904496
  N         2.0952929474       10.8660665668        5.7594368060
  O        21.8357942749       -4.8516411519        5.5079284099
  H        22.0110546410       -4.8378953839        4.5203287073
  H        10.0270398664       -5.9089394260        1.8243229670
  H        10.6594453892       -4.6106850443        0.9560594761
  H        11.8682472124        1.4710219739        9.3022149944
  H        12.1002074767        3.1320462667        8.9985937905
  C         9.9077428335       -4.0944249070        2.8322523119
  H         9.6803563072       -4.6598428311        3.7441238186
  H        10.5859270530       -3.2772436277        3.1043495128
  C        12.0114038190       -5.3518651582        2.3917844934
  H        11.9016051200       -5.7553119726        3.4061531521
  H        12.5430899074       -4.3963405227        2.4972110925
  C        12.8085226741       -6.3020402688        1.5207010017
  C        12.2607278305       -7.0188883564        0.4504350467
  H        11.2087808457       -6.9118262188        0.1928294096
  C        13.0471637992       -7.9092606797       -0.2898919291
  H        12.5986048779       -8.4706046018       -1.1066283796
  C        14.3960900733       -8.0838021085        0.0258031417
  H        15.0078203837       -8.7855241995       -0.5392961052
  C        14.9586020349       -7.3584861541        1.0819875465
  H        16.0113422576       -7.4795520603        1.3374396794
  C        14.1777782779       -6.4711417143        1.8369060129
  C        14.7702984727       -5.7219207168        2.9815966507
  C        14.6355632992       -6.1989500141        4.2926534097
  H        14.1402211184       -7.1528360894        4.4681242410
  C        15.1343190738       -5.4694480456        5.3754937355
  H        15.0280302014       -5.8809104421        6.3759083430
  C        15.7538579727       -4.2241227439        5.1937095753
  C        15.9202989427       -3.7721790097        3.8728751417
  H        16.4313659954       -2.8299487355        3.6887548915
  C        15.4396268214       -4.5033111385        2.7860463280
  H        15.5751691813       -4.1217230011        1.7748011177
  C        16.3474164500       -3.4127262990        6.3765843215
  C        17.8603106909       -3.7108406838        6.2826356141
  C        18.4171361366       -4.8737053590        6.8354749997
  H        17.7933373975       -5.5355007210        7.4318456382
  C        19.7434376721       -5.2353626484        6.5944593060
  H        20.1480433836       -6.1602390619        6.9993369296
  C        20.5476479374       -4.4553628003        5.7539065888
  C        20.0094402066       -3.2868694997        5.1942446721
  H        20.6323197531       -2.6733753263        4.5464310918
  C        18.6879523250       -2.9275486359        5.4580243175
  H        18.2929348841       -2.0212054972        5.0055334424
  C        16.0595236402       -1.8951556045        6.2580222858
  C        16.8513249243       -0.9713230782        6.9629485045
  H        17.7133185143       -1.3246131289        7.5253270557
  C        16.5523189943        0.3924012654        6.9570842035
  H        17.1780610342        1.0860193525        7.5163793049
  C        15.4268054032        0.8741246570        6.2675632220
  C        14.6254536523       -0.0472274298        5.5765350098
  H        13.7232794907        0.2902452479        5.0675120056
  C        14.9430481321       -1.4061330623        5.5688723152
  H        14.2902767590       -2.0908394692        5.0359534729
  C        15.0614735940        2.3165368582        6.2781611202
  C        15.9128783502        3.2558398300        5.6689216716
  H        16.8473306614        2.9086210287        5.2320962351
  C        15.5587382811        4.6040596856        5.5789662501
  H        16.2159745421        5.3003581212        5.0610153715
  C        14.3439114809        5.0324849912        6.1218688205
  H        14.0210709090        6.0694074622        6.0345963974
  C        13.5033807148        4.1178497406        6.7595005993
  H        12.5730325410        4.4711710159        7.1993332605
  C        13.8445073774        2.7599425000        6.8490435758
  C        12.9128035568        1.7963166757        7.5482774466
  H        11.9644180693        1.6905544775        7.0071832312
  H        13.3461137993        0.7941294634        7.6082759067
  C        13.7660183574        2.2214746540        9.8682654024
  H        14.2121574631        1.2171516646        9.8725374367
  H        14.4995603049        2.9114550497        9.4300802846
  C        13.3898776583        2.6893855883       11.2748874321
  H        14.3257374426        2.9193758651       11.8119584780
  H        12.8404429398        3.6371291896       11.2000205232
  C        11.7094310054        2.3564374934       13.0013940300
  H        12.2254815946        3.1589219824       13.5613035999
  H        11.4070347850        1.5955459692       13.7316412450
  C        13.4341811788        0.6998991156       12.6821245721
  H        13.7135514216        1.0154278245       13.7030155876
  H        14.3729322865        0.6264519970       12.1268599518
  C        12.7767565632       -0.6779802968       12.7165184250
  H        11.7598884872       -0.6044659890       13.1441902193
  H        13.3675678155       -1.3319106678       13.3702954344
  C        11.9779850738       -2.5105446641       11.2621156263
  H        11.8770291234       -2.7258421675       10.1937179102
  H        10.9493497517       -2.3616286992       11.6305953087
  C        12.5954327775       -3.6704798913       12.0104401430
  C        12.1271073938       -3.9248621822       13.3116735538
  H        11.3834528274       -3.2439090798       13.7272041869
  C        12.6094260170       -4.9867615403       14.0813503456
  H        12.2335832059       -5.1574345984       15.0878560206
  C        13.5835271321       -5.8307098620       13.5448611530
  H        13.9484643027       -6.6820129580       14.1154055138
  C        14.0951775463       -5.5628302684       12.2763825194
  H        14.8766426518       -6.1988047587       11.8684703050
  C        13.6315986031       -4.4872003333       11.4965358381
  C        14.3038411465       -4.2467437260       10.1894261873
  C        15.7028959405       -4.1096062716       10.1454898112
  H        16.2712607557       -4.1583170787       11.0726551198
  C        16.3761391433       -3.8726095714        8.9405031152
  H        17.4561312336       -3.7444649660        8.9602351823
  C        15.6801403811       -3.7905347803        7.7240846030
  C        14.2824676873       -3.9358071325        7.7752990498
  H        13.7021516718       -3.8608899749        6.8611716165
  C        13.6079863090       -4.1678940152        8.9718989423
  H        12.5278053322       -4.2953430290        8.9481510821
  H        12.2012242557       -0.5982180447       10.7644292163
  F        -0.9289419491        8.4914417337        0.3284933593
  F         0.3097241181        9.1185500357        2.0822261413
  F         0.0780822118       10.4480654834        0.3893188522
  O        -1.7310953323       11.3924848338        2.1520825393
  O        -2.7481348534        9.3506672237        2.1651743621
  C        -1.8438195632       10.1502588679        1.8785461381
  C        -0.6117364719        9.5467306043        1.1398794199
  F         5.9171009211       12.0972159541        2.3191313644
  F         4.9712293284       11.2157383267        0.5550583892
  F         4.3085855069       10.5858454713        2.5566194087
  O         4.0375671490       13.9728593770        1.6772676037
  O         2.4398879679       12.3679047294        1.8391533879
  C         3.6233962658       12.7876202698        1.7924697308
  C         4.7174720477       11.6701557119        1.8236155667
  O        -2.0135244784        4.2153084995       12.2208347208
  H        -1.2938949436        4.0362538897       12.8508572276
  H        -1.9086189758        5.2136285180       11.9598304207
  O         4.7063027525       15.9987161246       14.5440286190
  H         3.8307077851       15.9248529030       14.1279170570
  H         5.3561429238       15.9803445681       13.8146540097
  N         7.7465919423       -3.4073807507        6.1510734766
  N         7.7457004382       -2.9250979379        3.1023611526
  N         7.5779317567        0.0260398145        3.7535016204
  N        10.6350154009       -5.0385714601        1.9067530401
  O         4.4418635943       -0.0809490105        2.0844519712
  H         4.4770670175       -0.2283383404        3.0791648308
  H         2.8059979809       11.6553079912        5.8584759456
  H         1.6766694508       10.7445183744        6.7070185100
  H        -3.9537561253        8.2872129165       -1.7894850336
  H        -5.5252049152        7.7427922703       -1.4578630746
  C         1.0218011456       11.3732146304        4.8280703860
  H         1.5278908234       11.7101393809        3.9148866327
  H         0.3688871659       10.5358737064        4.5548765656
  C         2.6985345672        9.5923291342        5.2657790994
  H         3.0626580130        9.7912320775        4.2503060855
  H         1.8798420470        8.8672759150        5.1606763657
  C         3.8056728646        9.0132213472        6.1219913073
  C         4.3961413980        9.6967493737        7.1909470516
  H         4.0614276193       10.6965887818        7.4607880554
  C         5.4475500250        9.1209574778        7.9132923487
  H         5.9050221593        9.6755512031        8.7296129232
  C         5.9129580582        7.8473739611        7.5798645054
  H         6.7394975262        7.4014381606        8.1311790342
  C         5.3179356790        7.1477962434        6.5240861883
  H         5.6664989479        6.1505723650        6.2550789575
  C         4.2699210452        7.7186541147        5.7870337793
  C         3.6634468373        6.9836899105        4.6394611877
  C         4.1212358094        7.2011159816        3.3326631958
  H         4.9556534532        7.8797498489        3.1625404357
  C         3.5240218448        6.5545216203        2.2468581533
  H         3.9186593608        6.7344357323        1.2500597696
  C         2.4290730535        5.6949774358        2.4204181138
  C         1.9985784393        5.4554087267        3.7370785833
  H         1.1748916768        4.7677714932        3.9151909133
  C         2.6010165510        6.0852073263        4.8269891312
  H         2.2392472705        5.8848398292        5.8346932671
  C         1.7789184836        4.9357493191        1.2331301941
  C         2.4148269160        3.5303683101        1.3225795590
  C         3.6663399927        3.2503473136        0.7530671898
  H         4.1609883696        4.0063576766        0.1475490311
  C         4.3234017130        2.0410736619        0.9869952853
  H         5.3110114962        1.8578494523        0.5697240988
  C         3.7580008362        1.0808791480        1.8356947837
  C         2.5041318868        1.3413425052        2.4102908947
  H         2.0567554868        0.5961477743        3.0648775666
  C         1.8504466183        2.5469183145        2.1546210105
  H         0.8844723718        2.7273035928        2.6203333742
  C         0.2342870114        4.8811207407        1.3400405651
  C        -0.4919046963        3.8923692687        0.6527691664
  H         0.0424182513        3.1065011954        0.1227171656
  C        -1.8883175766        3.9029471764        0.6313595147
  H        -2.4267253532        3.1307942983        0.0840946893
  C        -2.6060260529        4.9257309806        1.2748152086
  C        -1.8836407177        5.9192450511        1.9531485040
  H        -2.4097472655        6.7454447873        2.4304320678
  C        -0.4893555894        5.8900974049        1.9882687883
  H         0.0349452202        6.6865825406        2.5074937603
  C        -4.0921661147        4.9809132693        1.2422156515
  C        -4.8366020940        3.9495737361        1.8432910400
  H        -4.3032631132        3.1095670517        2.2844068310
  C        -6.2297668767        4.0097732939        1.9202403492
  H        -6.7752840964        3.2178743847        2.4306381396
  C        -6.9002716875        5.1083688063        1.3749236061
  H        -7.9830167757        5.2029632251        1.4476779670
  C        -6.1776343202        6.1243046009        0.7463188917
  H        -6.7165432078        6.9591810335        0.3033412199
  C        -4.7778290584        6.0774424102        0.6656458304
  C        -4.0306341800        7.1881853968       -0.0387337172
  H        -4.1058864611        8.1372292889        0.5081379796
  H        -2.9633919675        6.9620016998       -0.1181461234
  C        -4.3365413801        6.2768934927       -2.3568638265
  H        -3.2697583778        6.0130417236       -2.3685382255
  H        -4.8859379116        5.4313375855       -1.9223807657
  C        -4.8678030506        6.5802391571       -3.7580786192
  H        -4.9271078905        5.6286550185       -4.3128514405
  H        -5.8991689950        6.9482693265       -3.6768074343
  C        -4.8360827353        8.3145825737       -5.4632725215
  H        -5.5050131177        7.6586782657       -6.0511958797
  H        -4.1338302905        8.7775262721       -6.1671780323
  C        -2.8894987846        6.9288086049       -5.1411822152
  H        -3.1340429958        6.6129068250       -6.1708450661
  H        -2.6445833690        6.0110532266       -4.5988976613
  C        -1.6627117870        7.8382763271       -5.1440993687
  H        -1.9265286308        8.8304526421       -5.5538887504
  H        -0.8980933706        7.3982214003       -5.7960015494
  C        -0.0591180492        8.9691858761       -3.6378541013
  H         0.1258766695        9.0733077269       -2.5641461239
  H        -0.4270162088        9.9541004693       -3.9704101873
  C         1.2086870897        8.6430040221       -4.3927713263
  C         1.3502242762        9.1671948238       -5.6896922256
  H         0.5190961595        9.7403104423       -6.1019973733
  C         2.4950615812        8.9433449599       -6.4589517469
  H         2.5765468098        9.3535391464       -7.4629350116
  C         3.5382018901        8.1830153915       -5.9269162474
  H         4.4496629934        8.0241695594       -6.4988862004
  C         3.3939781936        7.6155324034       -4.6619818180
  H         4.1903860567        6.9959345805       -4.2574449629
  C         2.2401098689        7.8188663363       -3.8834122609
  C         2.1516741767        7.1093250908       -2.5775942494
  C         2.2945596446        5.7112009246       -2.5365894521
  H         2.4485646312        5.1652571991       -3.4656975963
  C         2.2080230651        5.0055601651       -1.3305644328
  H         2.2981550381        3.9216674089       -1.3488525992
  C         2.0024975663        5.6724765093       -0.1122931322
  C         1.8639358803        7.0705044538       -0.1615041143
  H         1.6809590105        7.6255801673        0.7532651844
  C         1.9465195270        7.7768803867       -1.3594859118
  H         1.8560951905        8.8610461743       -1.3367946366
  H        -1.8864668160        8.3477287470       -3.1920891985
  F         8.0587409381        0.3920979901        7.8305101202
  F         8.3588796071        1.6768545796        9.5941871473
  F         9.7766780864        1.7310429088        7.9113654751
  O        11.0244626958        0.1683948204        9.6685142274
  O         9.2360020096       -1.2472394274        9.7466138420
  C         9.8297068454       -0.2048295052        9.4214288585
  C         9.0059922247        0.8820895017        8.6627079606
  F        10.3412228747        7.8608713814        9.9856297412
  F         9.5006684831        6.9087399120        8.1573328555
  F         9.0239219688        6.1153202605       10.1497186308
  O        12.3714674118        6.3694301730        9.0290351222
  O        11.1188348569        4.5192866335        9.4305509936
  C        11.3005561046        5.7528731844        9.2895953015
  C        10.0311036709        6.6605496369        9.4063930353
  O         5.0979673603       -0.3771302767        4.7072018029
  H         4.7860627983        0.3140922013        5.3168757271
  H         6.0482326192       -0.0845206523        4.4187238490
  O        15.0929456337        8.6637062910        6.9470860787
  H        15.1884063368        7.7846689358        6.5432295862
  H        14.9515388158        9.2888587148        6.2095914879
  N        -4.5169071019        7.4425634419       -1.4382363826
  N        -4.0529340273        7.5602541098       -4.4834208131
  N        -1.1270070095        7.9517898424       -3.7753796546
  N        -6.7164559266        9.9311602640       -5.7324331272
  O        -1.5197103093        3.7153283558        9.5966432040
  H        -1.6883832991        3.6914767468       10.5881617193
  H        10.3480486524        4.7022029629       13.3819102415
  H         9.6902547879        3.3954315134       14.2161322940
  H         8.4593151665       -2.6843668306        5.8015246841
  H         8.2232524695       -4.3422481320        6.1161034231
  C        10.4504395994        2.9089123668       12.3321167973
  H        10.6721629425        3.4855314823       11.4256034119
  H         9.7685976626        2.0970602836       12.0525287698
  C         8.3605083874        4.1728790030       12.7718806729
  H         8.4924090442        4.5971081065       11.7684680186
  H         7.8298252068        3.2207987662       12.6351665035
  C         7.5430659636        5.1059209410       13.6412887814
  C         8.0741240013        5.8221941291       14.7202468999
  H         9.1242264345        5.7205561051       14.9878412033
  C         7.2743621162        6.7043575328       15.4557156816
  H         7.7102438889        7.2652459690       16.2795705581
  C         5.9280674131        6.8716554468       15.1252449490
  H         5.3047648343        7.5667502887       15.6857650372
  C         5.3821589479        6.1467186606       14.0603422565
  H         4.3312772506        6.2622147058       13.7947691880
  C         6.1759138109        5.2666619247       13.3096003462
  C         5.5886702886        4.5198418329       12.1588747995
  C         5.7102045119        5.0066777461       10.8498316717
  H         6.2037531943        5.9617823647       10.6760232256
  C         5.1978952129        4.2867938295        9.7660684976
  H         5.2940036489        4.7067796818        8.7680282026
  C         4.5775058217        3.0409204262        9.9432960393
  C         4.4266408519        2.5779998281       11.2622572067
  H         3.9185524244        1.6336972636       11.4442587817
  C         4.9196116357        3.3000401705       12.3500927874
  H         4.7920717085        2.9108741365       13.3595064944
  C         3.9726865853        2.2384690892        8.7591068897
  C         2.4607205694        2.5492324908        8.8511337280
  C         1.9087674532        3.7074041398        8.2827692689
  H         2.5369719192        4.3598632458        7.6807686775
  C         0.5818051843        4.0765805298        8.5119755256
  H         0.1839404424        4.9983485355        8.0936460490
  C        -0.2320874711        3.3100269332        9.3561531124
  C         0.3023831216        2.1469009652        9.9328598788
  H        -0.3247961987        1.5426248106       10.5852527026
  C         1.6248150782        1.7798392295        9.6809255893
  H         2.0135947600        0.8775103364       10.1470373368
  C         4.2544753324        0.7180769900        8.8720243081
  C         3.4477116028       -0.2058920241        8.1845986137
  H         2.5715106373        0.1462718067        7.6440192065
  C         3.7510244847       -1.5691866991        8.1783959689
  H         3.1127775092       -2.2621910999        7.6325075137
  C         4.8952211890       -2.0513667631        8.8368785828
  C         5.7110037671       -1.1293948380        9.5108264029
  H         6.6251411362       -1.4653341842        9.9993891517
  C         5.3891970379        0.2282967173        9.5313490551
  H         6.0528423805        0.9121374409       10.0515986657
  C         5.2563787734       -3.4948342543        8.8215240111
  C         4.3941467803       -4.4319590293        9.4202250345
  H         3.4586963597       -4.0798613918        9.8510689390
  C         4.7368981980       -5.7831579932        9.5063480555
  H         4.0693347887       -6.4769334768       10.0144084388
  C         5.9525797041       -6.2184584976        8.9709599185
  H         6.2658917663       -7.2586567422        9.0516600278
  C         6.8043097740       -5.3069922829        8.3443748285
  H         7.7339008693       -5.6665363297        7.9073709231
  C         6.4743715119       -3.9459020115        8.2579872155
  C         7.4170701796       -2.9931813838        7.5581970923
  H         8.3673389115       -2.8949860637        8.0981825252
  H         6.9941090470       -1.9866421289        7.4924652006
  C         6.5583988300       -3.4370460993        5.2423775909
  H         6.1094208714       -2.4339895714        5.2348586493
  H         5.8276603321       -4.1282582577        5.6827839391
  C         6.9407969857       -3.9052706692        3.8381553820
  H         6.0093991532       -4.1369374115        3.2943821564
  H         7.4927189025       -4.8515067703        3.9134055529
  C         8.6515637918       -3.5565086967        2.1426959670
  H         8.1563458744       -4.3666942274        1.5748669319
  H         8.9569064487       -2.7920714589        1.4179392409
  C         6.9015179971       -1.9194906631        2.4243504739
  H         6.6378999579       -2.2412519511        1.4009925850
  H         5.9548686631       -1.8484174762        2.9668233193
  C         7.5515320156       -0.5376923528        2.3932475606
  H         8.5685083563       -0.6029867559        1.9645475629
  H         6.9555445006        0.1144385597        1.7423743379
  C         8.3373513944        1.2910532712        3.8677238815
  H         8.4209472554        1.5006587274        4.9388291104
  H         9.3719589412        1.1498110846        3.5136681996
  C         7.7233901123        2.4511943494        3.1178935987
  C         8.1894794060        2.6985092393        1.8143525758
  H         8.9274279637        2.0112124329        1.3989458383
  C         7.7120985993        3.7612848220        1.0427934135
  H         8.0860197026        3.9261319364        0.0344284265
  C         6.7459465283        4.6136238413        1.5804442054
  H         6.3852579217        5.4660327544        1.0088792856
  C         6.2363783297        4.3528108271        2.8511015348
  H         5.4606937311        4.9951438602        3.2599229675
  C         6.6940196616        3.2757771329        3.6323761182
  C         6.0218771596        3.0443423487        4.9413833889
  C         4.6226625693        2.9072608994        4.9856523967
  H         4.0549299981        2.9485970463        4.0576841342
  C         3.9485900365        2.6807599994        6.1921511569
  H         2.8688381496        2.5508857364        6.1721341049
  C         4.6431963168        2.6109350883        7.4103880641
  C         6.0408790724        2.7562994313        7.3582911394
  H         6.6217532926        2.6883801844        8.2725791661
  C         6.7167330726        2.9764395120        6.1598294753
  H         7.7971700013        3.1028740921        6.1828402636
  H         8.1236010139       -0.6275003521        4.3448741937
  F        16.6509594113       11.0935446069       14.7811261660
  F        15.3953720349       10.5330910682       13.0290921405
  F        15.6415074774        9.1385411765       14.7091075691
  O        17.4375414940        8.2051498759       12.9550717263
  O        18.4659167947       10.2367734697       12.9387356517
  C        17.5499297349        9.4486394139       13.2177159113
  C        16.3187769195       10.0577908931       13.9574593141
  F         9.8215787223        7.3177650965       12.6986449053
  F        10.6099022937        8.2959451712       14.4751724464
  F        11.2792467856        8.9263583181       12.4696914887
  O        11.7561642770        5.6068810763       13.5830585778
  O        13.2674840902        7.2829174089       13.2672179851
  C        12.1108397075        6.7990487538       13.3543239933
  C        10.9535582230        7.8393440470       13.2314004202
  O        17.8055744533       15.3663306241        2.8872103864
  H        17.1186959011       15.5460764021        2.2220140143
  H        17.6665453239       14.3798767322        3.1683977550
  O        11.0091152435        3.5755095786        0.6391562703
  H        11.8680785275        3.6315073903        1.0895439673
  H        10.3320159750        3.5810560391        1.3442588468
  N        12.5791401038        2.1984119881        8.9576135915
  N        12.5864153945        1.7144516461       12.0211398647
  N        12.7460465462       -1.2497937136       11.3591733508
  N         9.7297092011        3.8413064311       13.2739434958
  O        -9.0444138237       20.8716479139       -2.0838395944
  H        -9.0781047606       21.0141326417       -3.0789023732
  H        -7.4238670630        9.1419146543       -5.8415985155
  H        -6.2889879156       10.0575974483       -6.6757680245
  H        -0.6563265097       12.5108280175        1.8019032927
  H         0.9173703404       13.0692075872        1.4803904845
  C        -5.6485956656        9.4249988831       -4.7925173922
  H        -6.1619349591        9.0839284548       -3.8851726621
  H        -5.0038614350       10.2656717801       -4.5103833646
  C        -7.3224051601       11.2018718776       -5.2336369302
  H        -7.6925922349       10.9958745326       -4.2217232613
  H        -6.5029721789       11.9244409283       -5.1174675435
  C        -8.4218017928       11.7932301415       -6.0912674057
  C        -9.0121805478       11.1221345031       -7.1683020933
  H        -8.6825003568       10.1222567393       -7.4441929267
  C       -10.0563642326       11.7106306209       -7.8908544177
  H       -10.5144630015       11.1655201734       -8.7132201472
  C       -10.5140042502       12.9852281066       -7.5501939415
  H       -11.3351516453       13.4406856590       -8.1019067984
  C        -9.9170386972       13.6736183382       -6.4882573332
  H       -10.2575927057       14.6724710641       -6.2151154354
  C        -8.8765287703       13.0897132753       -5.7506351797
  C        -8.2641347377       13.8180288104       -4.6016999483
  C        -8.7083637642       13.5922288781       -3.2915027428
  H        -9.5374648715       12.9082050161       -3.1164578368
  C        -8.1063916474       14.2397231009       -2.2084489342
  H        -8.4922786891       14.0544915470       -1.2092092378
  C        -7.0190484644       15.1078482034       -2.3881500884
  C        -6.6019371538       15.3545667245       -3.7078408487
  H        -5.7855224867       16.0495409147       -3.8909530942
  C        -7.2095444192       14.7246842838       -4.7947491929
  H        -6.8583239305       14.9315078741       -5.8048807966
  C        -6.3625169998       15.8709500723       -1.2058565420
  C        -7.0000320110       17.2755597358       -1.2974480862
  C        -8.2547364129       17.5516485029       -0.7328167916
  H        -8.7475805770       16.7952144077       -0.1263039112
  C        -8.9171316227       18.7565239305       -0.9741641483
  H        -9.9073158035       18.9364804642       -0.5615447111
  C        -8.3538999627       19.7158233215       -1.8255670390
  C        -7.0955012314       19.4607874334       -2.3924227875
  H        -6.6489301221       20.2061914872       -3.0473574161
  C        -6.4364834396       18.2596354273       -2.1293451642