ITEM: TIMESTEP
1000
ITEM: NUMBER OF ATOMS
48
ITEM: BOX BOUNDS xy xz yz pp pp pp
-4.9119979715214930e+00 9.8933883149609372e+00 -4.9116672599413009e+00
-3.2133923777716636e-03 8.5504169100992158e+00 -3.3071158019214739e-04
0.0000000000000000e+00 7.9363828800207079e+00 -3.2133923777716636e-03
ITEM: ATOMS id type x y z
1 1 1.02729 3.4926 6.02879
2 1 1.39401 0.770697 2.04333
3 1 3.97474 0.599413 1.7379
4 6 0.0180226 1.23863 5.9591
5 3 -1.15553 3.49112 6.01092
6 4 2.60343 2.82503 2.08713
7 3 -4.84943 8.5161 3.63609
8 3 0.0228969 0.00401139 0.153907
9 4 -1.27934 7.78661 5.95028
10 4 -0.968004 4.9308 2.03762
11 3 1.585 5.00976 2.23646
12 3 -2.7199 5.67647 5.70798
13 1 -3.84559 7.73594 5.76804
14 4 0.297138 7.10294 2.1687
15 3 7.44912 4.16952 4.00569
16 1 -2.29237 4.22841 7.72331
17 6 6.00495 3.58585 5.71916
18 3 6.28948 0.862453 2.07737
19 3 8.73627 0.726461 2.03563
20 3 5.03338 1.51182 6.02441
21 3 3.58858 3.54585 5.79412
22 3 7.49791 2.99127 1.92095
23 4 5.05723 0.179104 3.95392
24 3 4.91548 0.0744208 7.91183
25 4 3.5339 7.80388 6.00836
26 1 3.81082 5.14457 2.06195
27 4 6.25584 4.99329 1.97203
28 1 2.13615 5.66781 5.93229
29 3 1.1462 7.83216 6.23425
30 3 5.05629 7.08726 1.81142
31 1 2.38928 4.25117 4.07937
32 4 2.47872 4.2335 0.132041
33 7 0.185132 2.8317 3.39289
34 7 2.42514 1.57552 7.61463
35 7 2.53692 1.29692 4.58467
36 5 -0.107452 2.70206 0.453398
37 7 -2.26599 7.11747 3.22698
38 7 0.0706417 5.63073 7.76518
39 7 -0.0660292 5.72564 4.58816
40 7 -2.62196 7.01313 0.194667
41 7 4.79424 2.89654 3.3459
42 7 7.41799 1.38234 7.5336
43 7 7.47241 1.3094 4.48788
44 7 4.9761 3.05543 0.436915
45 7 2.52996 7.08652 3.67604
46 7 4.62991 5.73347 7.16761
47 5 5.08272 5.90599 4.25559
48 7 2.53274 7.24592 0.669097
ITEM: TIMESTEP
1100
ITEM: NUMBER OF ATOMS
48
ITEM: BOX BOUNDS xy xz yz pp pp pp
-4.9292757011230544e+00 9.9523855112620865e+00 -4.8699430789168536e+00
3.3058319911029518e-02 8.5140993905981333e+00 -3.3542590504693636e-04
-5.6566944294268985e-02 7.9929498243149668e+00 -3.2591995900438115e-03
ITEM: ATOMS id type x y z
1 1 1.00173 3.46485 6.13994
2 1 1.48009 0.693723 2.01686
3 1 3.98077 0.674968 1.67256
4 6 -0.0371488 1.29439 6.18014
5 3 -1.30259 3.56111 5.94024
6 4 2.6461 2.8011 2.09331
7 3 -4.86856 8.37699 3.85624
8 3 0.0129098 0.17654 0.213064
9 4 -1.27227 7.60236 5.92343
10 4 -1.12069 4.95114 1.96236
11 3 1.59443 4.86072 2.1025
12 3 -2.73515 5.54029 5.51017
13 1 -3.84036 7.7805 5.55108
14 4 0.347641 7.12202 2.03131
15 3 7.56195 3.99099 3.83109
16 1 -2.44065 4.23367 7.90834
17 6 6.14496 3.6472 6.04541
18 3 6.39094 0.812997 1.97411
19 3 8.80883 0.773467 2.05292
20 3 4.8795 1.59967 5.99266
21 3 3.58362 3.57983 5.92964
22 3 7.62773 2.82508 1.97981
23 4 5.01038 -0.0462509 4.04701
24 3 4.90252 0.0589979 7.75046
25 4 3.58436 8.01573 6.02527
26 1 3.89963 5.11603 1.9465
27 4 6.40585 5.0577 1.77969
28 1 2.2832 5.81275 6.24385
29 3 1.2141 7.64238 6.05103
30 3 5.0606 7.09977 1.95998
31 1 2.51232 4.3787 4.14643
32 4 2.45357 4.18402 0.033402
33 7 0.19216 2.83229 3.49254
34 7 2.41502 1.57761 7.80719
35 7 2.60566 1.31938 4.62588
36 5 -0.287943 2.77609 0.57697
37 7 -2.29532 7.18599 3.07711
38 7 0.0204359 5.59181 7.76933
39 7 -0.111729 5.63604 4.57408
40 7 -2.60225 6.97106 -0.0104364
41 7 5.0637 2.83366 3.3673
42 7 7.32866 1.5816 7.55213
43 7 7.45223 1.44873 4.43706
44 7 4.99539 3.22509 0.514323
45 7 2.64794 7.10949 3.75928
46 7 4.63808 5.81573 7.1427
47 5 5.3373 5.5291 4.1362
48 7 2.50642 7.21229 0.646068
ITEM: TIMESTEP
1200
ITEM: NUMBER OF ATOMS
48
ITEM: BOX BOUNDS xy xz yz pp pp pp
-4.9137102018839514e+00 9.9664457563918596e+00 -4.8403089934276684e+00
5.8771343333026242e-02 8.4883053198404745e+00 -3.4376702536398210e-04
-1.5665162298306914e-01 8.0930345030037181e+00 -3.3402469257110354e-03
ITEM: ATOMS id type x y z
1 1 1.3141 3.55522 6.11993
2 1 1.32401 0.664187 2.03137
3 1 4.0622 0.731566 1.56744
4 6 0.012807 1.70813 6.17551
5 3 -1.33487 3.56347 6.10664
6 4 2.66172 2.72316 2.21729
7 3 -4.93503 8.37491 3.89892
8 3 -0.165244 0.112901 0.105982
9 4 -1.30633 7.68218 5.80008
10 4 -0.981842 4.77924 1.93021
11 3 1.51268 4.92064 2.25892
12 3 -2.65291 5.55239 5.72015
13 1 -3.91021 7.71434 5.85092
14 4 0.270239 6.9506 1.90705
15 3 7.5939 4.15469 3.7441
16 1 -2.31162 4.08572 7.99567
17 6 6.13753 3.58894 5.98396
18 3 6.19807 0.796937 1.86751
19 3 8.71678 1.03159 2.00277
20 3 4.73097 1.61692 6.17636
21 3 3.73193 3.63009 5.9745
22 3 7.63754 2.87349 1.86071
23 4 5.08714 0.125496 4.00991
24 3 4.76969 0.0810806 7.89184
25 4 3.71803 7.96462 6.1908
26 1 3.70996 5.12648 1.97517
27 4 6.47288 5.15919 1.82195
28 1 2.18397 5.70893 6.18348
29 3 1.0675 7.80971 6.16404
30 3 5.01415 6.99833 1.77561
31 1 2.72776 4.30103 4.21748
32 4 2.43136 4.2996 -0.035829
33 7 0.223055 2.78177 3.47831
34 7 2.4246 1.62789 7.80914
35 7 2.48184 1.23554 4.65853
36 5 -0.06351 2.80213 0.410443
37 7 -2.16192 7.13059 2.98434
38 7 0.0849717 5.61451 7.6879
39 7 0.0222628 5.6476 4.52254
40 7 -2.65463 6.99204 -0.0523003
41 7 4.97882 2.74622 3.57971
42 7 7.30625 1.42004 7.63428
43 7 7.57378 1.47327 4.5369
44 7 5.02501 3.21879 0.508512
45 7 2.66259 6.92466 3.64843
46 7 4.83825 5.90923 7.07157
47 5 5.36995 5.70603 4.06046
48 7 2.55324 7.1348 0.473302
ITEM: TIMESTEP
1300
ITEM: NUMBER OF ATOMS
48
ITEM: BOX BOUNDS xy xz yz pp pp pp
-4.7991243514247710e+00 9.9178998079952425e+00 -4.7742711248362353e+00
1.1627171663360507e-01 8.4308247049669536e+00 -3.4173355423187669e-04
-1.3225210623424741e-01 8.0686349862548159e+00 -3.3204884986474032e-03
ITEM: ATOMS id type x y z
1 1 1.37636 3.53027 6.0029
2 1 1.19369 0.863009 2.02021
3 1 3.81538 0.736486 1.75891
4 6 -0.115787 1.55305 6.16559
5 3 -1.05505 3.51269 6.07163
6 4 2.63014 2.78934 1.97521
7 3 -4.7305 8.23046 3.79499
8 3 -0.0581771 0.122257 -0.0370899
9 4 -1.19528 7.56413 6.03166
10 4 -0.91443 4.95022 1.86004
11 3 1.55179 4.86072 2.10961
12 3 -2.37226 5.46917 5.71453
13 1 -3.83093 7.86947 5.87719
14 4 0.388118 6.93309 1.92761
15 3 7.39547 4.29009 3.87432
16 1 -2.25523 4.18487 8.1993
17 6 6.2993 3.60981 6.04858
18 3 6.16529 0.825543 2.01915
19 3 8.50512 0.732215 1.8722
20 3 5.07395 1.61784 6.06589
21 3 3.7604 3.40047 6.20488
22 3 7.50802 2.89453 2.07673
23 4 4.95454 0.13712 3.97447
24 3 4.8516 0.0520908 8.01503
25 4 3.67983 7.89483 6.03937
26 1 4.01684 5.02102 2.04341
27 4 6.41489 5.04689 1.74241
28 1 2.37864 5.83229 6.04382
29 3 1.31445 7.75333 6.11694
30 3 5.17076 7.10849 1.72205
31 1 2.71518 4.32032 4.0526
32 4 2.51543 4.33712 -0.0182999
33 7 0.187319 2.93489 3.38386
34 7 2.48443 1.68069 7.83753
35 7 2.49068 1.3788 4.67848
36 5 -0.0769845 2.80068 0.396827
37 7 -2.11185 7.03369 3.07399
38 7 0.000324943 5.52965 7.68884
39 7 0.124667 5.56714 4.56595
40 7 -2.52364 6.99845 0.0225412
41 7 4.85359 2.92227 3.46095
42 7 7.35256 1.50204 7.67722
43 7 7.47377 1.52519 4.46588
44 7 5.0877 3.18258 0.519958
45 7 2.68929 7.06771 3.57242
46 7 4.81456 5.77205 7.11674
47 5 5.33236 5.84177 4.17242
48 7 2.6215 6.95263 0.508867
ITEM: TIMESTEP
1400
ITEM: NUMBER OF ATOMS
48
ITEM: BOX BOUNDS xy xz yz pp pp pp
-4.8328612454766029e+00 9.9388260133410675e+00 -4.7870846301379295e+00
1.0514596602751175e-01 8.4419778233085534e+00 -3.3891695856393323e-04
-9.8455917987646455e-02 8.0348387980081295e+00 -3.2931207631560211e-03
ITEM: ATOMS id type x y z
1 1 1.30012 3.57997 6.06943
2 1 1.2313 0.86034 1.98957
3 1 3.72037 0.73949 1.74422
4 6 0.143644 1.4528 5.99333
5 3 -1.09768 3.45863 5.97887
6 4 2.62978 2.9007 1.97456
7 3 -4.77944 8.49122 3.83316
8 3 -0.0321713 0.127545 -0.0195193
9 4 -1.25652 7.76583 6.10521
10 4 -0.989378 4.98259 1.98086
11 3 1.55354 4.95476 2.11261
12 3 -2.45122 5.36097 5.81459
13 1 -3.57989 7.71841 5.72629
14 4 0.329257 7.03889 2.05587
15 3 7.54967 4.1787 3.90593
16 1 -2.34491 4.04432 8.01531
17 6 6.2819 3.67937 6.06652
18 3 6.25435 0.894615 1.97705
19 3 8.45417 0.935551 2.10396
20 3 4.93536 1.59233 6.13116
21 3 3.84466 3.41165 5.86462
22 3 7.5799 2.98916 1.95531
23 4 4.97784 0.141608 4.04641
24 3 5.06894 0.134714 8.15496
25 4 3.65557 7.78457 5.86567
26 1 3.90183 5.20191 1.94454
27 4 6.39463 5.12249 1.91278
28 1 2.44632 5.59016 6.02978
29 3 1.1868 7.71922 6.31318
30 3 4.98249 7.23345 1.72617
31 1 2.44719 4.42349 4.08531
32 4 2.61629 4.16849 -0.107582
33 7 0.0947471 2.81549 3.40197
34 7 2.4943 1.49637 7.70959
35 7 2.52709 1.41062 4.55841
36 5 -0.232773 2.59849 0.493442
37 7 -2.24985 7.16969 3.23741
38 7 0.154128 5.46341 7.75317
39 7 0.0492615 5.77034 4.64101
40 7 -2.50482 6.85622 0.0857768
41 7 4.87286 3.04353 3.47036
42 7 7.49838 1.3732 7.53774
43 7 7.38006 1.6175 4.47295
44 7 5.07331 3.01771 0.486019
45 7 2.72393 7.09543 3.6029
46 7 4.79255 5.69923 7.08689
47 5 5.38477 5.77673 4.23781
48 7 2.58764 6.95534 0.429968
ITEM: TIMESTEP
1500
ITEM: NUMBER OF ATOMS
48
ITEM: BOX BOUNDS xy xz yz pp pp pp
-4.9385467179221525e+00 9.9749441300341619e+00 -4.8566549735434394e+00
4.4619647826373121e-02 8.5025331713415362e+00 -3.3592930550784569e-04
-6.2607220835888044e-02 7.9989901008562798e+00 -3.2640909313240620e-03
ITEM: ATOMS id type x y z
1 1 1.15101 3.39359 6.07805
2 1 1.27381 0.78403 1.92339
3 1 3.88759 0.677986 1.87588
4 6 -0.037786 1.2279 5.953
5 3 -1.1984 3.51509 6.11957
6 4 2.54222 2.81034 2.11752
7 3 -5.02388 8.54685 3.70319
8 3 -0.00499076 -0.108612 0.0888366
9 4 -1.33088 7.86117 6.01733
10 4 -1.08364 4.8986 2.02932
11 3 1.54076 5.00742 2.17391
12 3 -2.52145 5.55984 5.76098
13 1 -3.73374 7.57931 5.77021
14 4 0.26166 7.10351 2.11057
15 3 7.524 4.30729 3.84932
16 1 -2.30891 4.08957 8.00392
17 6 6.20348 3.58605 5.90181
18 3 6.30747 0.806563 1.97487
19 3 8.54145 0.997456 1.8501
20 3 4.86501 1.62609 6.09287
21 3 3.59504 3.60386 5.92464
22 3 7.70483 2.96868 1.93333
23 4 5.04777 0.28702 4.10114
24 3 4.78324 -0.0120758 8.02318
25 4 3.76482 7.70702 5.96501
26 1 3.77519 5.14964 1.95409
27 4 6.22481 5.11616 1.89819
28 1 2.13165 5.67488 6.00882
29 3 1.21006 7.77907 6.2564
30 3 5.14358 7.19937 1.88821
31 1 2.36025 4.28099 4.07924
32 4 2.5274 4.21511 -0.0544516
33 7 0.0487846 3.05542 3.46624
34 7 2.43364 1.44863 7.5655
35 7 2.57922 1.45989 4.45171
36 5 0.0411132 2.5791 0.47842
37 7 -2.291 7.13191 3.09064
38 7 0.176246 5.45209 7.73538
39 7 -0.0563213 5.90933 4.70619
40 7 -2.5613 6.74316 0.197643
41 7 4.96552 3.12333 3.40095
42 7 7.47001 1.3468 7.49963
43 7 7.44123 1.46834 4.42017
44 7 5.13266 2.97614 0.491908
45 7 2.56314 6.94149 3.65025
46 7 4.88092 5.73937 7.16346
47 5 5.28962 5.91583 4.18679
48 7 2.52127 7.10985 0.62268
ITEM: TIMESTEP
1600
ITEM: NUMBER OF ATOMS
48
ITEM: BOX BOUNDS xy xz yz pp pp pp
-4.9422606419246939e+00 9.9540767691897099e+00 -4.8812357870393246e+00
2.3219461042304164e-02 8.5239287781951845e+00 -3.3640065660690979e-04
-6.8262938713861493e-02 8.0046458187342662e+00 -3.2686708617519827e-03
ITEM: ATOMS id type x y z
1 1 0.924783 3.42666 6.1392
2 1 1.26831 0.811913 1.9298
3 1 3.9754 0.813462 1.75155
4 6 -0.033717 1.12136 5.99547
5 3 -1.21432 3.466 6.03408
6 4 2.63203 2.84353 1.92086
7 3 -4.86003 8.55596 3.66737
8 3 -0.000937201 -0.00688577 0.0212154
9 4 -1.26991 7.88064 5.88344
10 4 -1.19309 5.02142 1.97602
11 3 1.44631 4.84824 2.17635
12 3 -2.70988 5.61072 5.67827
13 1 -3.87327 7.85086 5.82174
14 4 0.28773 7.09562 2.04571
15 3 7.4247 4.32552 3.95975
16 1 -2.25637 4.05836 7.98063
17 6 6.18231 3.56568 5.97819
18 3 6.18315 0.774822 2.05924
19 3 8.72197 0.77037 2.03935
20 3 4.97846 1.75858 5.90703
21 3 3.55581 3.54159 5.95691
22 3 7.68245 2.89673 1.90574
23 4 5.03407 0.0823233 3.98495
24 3 5.01241 -0.0785906 7.92441
25 4 3.63985 7.79969 6.05977
26 1 3.82491 5.03758 2.04859
27 4 6.40319 4.9453 1.79325
28 1 2.23859 5.68837 6.19825
29 3 1.07729 8.01422 6.21371
30 3 5.02175 6.94435 1.8712
31 1 2.55436 4.16874 4.1821
32 4 2.45058 4.23968 -0.00950303
33 7 0.0426258 2.98355 3.54502
34 7 2.52592 1.46837 7.62175
35 7 2.4767 1.35852 4.38232
36 5 -0.0348258 2.7011 0.449893
37 7 -2.34199 7.20438 3.10337
38 7 0.0957726 5.56803 7.79869
39 7 -0.116225 5.7676 4.69966
40 7 -2.52017 6.98047 -0.0216216
41 7 4.90123 2.99185 3.4456
42 7 7.48249 1.40907 7.47268
43 7 7.50313 1.49911 4.38754
44 7 5.0425 2.9214 0.483053
45 7 2.58775 7.02679 3.70309
46 7 4.68984 5.64121 7.36098
47 5 5.19938 5.9671 4.34541
48 7 2.6402 7.18752 0.60408
ITEM: TIMESTEP
1700
ITEM: NUMBER OF ATOMS
48
ITEM: BOX BOUNDS xy xz yz pp pp pp
-4.8687095665970945e+00 9.9124709301381895e+00 -4.8492899899713731e+00
5.1020240466568445e-02 8.4961225497802353e+00 -3.3696144847795024e-04
-7.4991851868333959e-02 8.0113747318886475e+00 -3.2741198524491666e-03
ITEM: ATOMS id type x y z
1 1 1.23978 3.66558 6.11604
2 1 1.41239 0.710223 1.82037
3 1 3.83196 0.544667 1.66856
4 6 0.0476444 1.56959 6.04297
5 3 -1.22195 3.56736 6.03591
6 4 2.54531 2.7133 2.13121
7 3 -4.97135 8.37003 3.84804
8 3 0.0237948 0.121662 0.217195
9 4 -1.38304 7.79922 5.87893
10 4 -0.945327 4.89044 1.9787
11 3 1.53033 5.01753 2.27076
12 3 -2.69293 5.6252 5.65952
13 1 -3.88355 7.84709 5.75107
14 4 0.26209 7.00061 2.01959
15 3 7.50449 4.08833 3.83666
16 1 -2.31971 4.19528 7.98521
17 6 6.17618 3.69307 6.02363
18 3 6.38364 0.863329 1.89984
19 3 8.80745 0.803513 2.08975
20 3 4.88687 1.51338 6.02272
21 3 3.67227 3.43809 5.93507
22 3 7.54636 2.80842 1.89658
23 4 4.99596 0.103224 3.90294
24 3 4.95265 0.0949601 7.94115
25 4 3.62141 7.81215 5.99648
26 1 3.77391 5.05239 2.0539
27 4 6.35326 4.91965 1.8841
28 1 2.30201 5.68226 5.92041
29 3 1.12248 7.77159 6.14424
30 3 4.99468 7.00809 1.86572
31 1 2.44678 4.38301 4.12169
32 4 2.49019 4.21863 0.217054
33 7 0.144185 2.8253 3.3496
34 7 2.5483 1.61049 7.54613
35 7 2.45879 1.35808 4.49057
36 5 0.0382326 2.83884 0.520155
37 7 -2.20755 7.08429 3.06756
38 7 0.104678 5.63649 7.78682
39 7 -0.0504882 5.75695 4.66004
40 7 -2.58017 6.95721 0.0266756
41 7 4.97855 3.00445 3.46613
42 7 7.50026 1.46076 7.56387
43 7 7.40756 1.55381 4.50231
44 7 5.06374 2.99562 0.551718
45 7 2.59137 7.05413 3.69387
46 7 4.7407 5.74939 7.21071
47 5 5.32595 5.72008 4.24709
48 7 2.55512 7.07916 0.633154
ITEM: TIMESTEP
1800
ITEM: NUMBER OF ATOMS
48
ITEM: BOX BOUNDS xy xz yz pp pp pp
-4.7903720693569518e+00 9.9301196939191207e+00 -4.7532966761249433e+00
1.3450611425260212e-01 8.4125681465063078e+00 -3.4401427383200987e-04
-1.5961834478280953e-01 8.0960012248030306e+00 -3.3426493403531650e-03
ITEM: ATOMS id type x y z
1 1 1.42699 3.52221 6.05744
2 1 1.40425 0.653138 1.9443
3 1 3.83272 0.740252 1.57008
4 6 -0.0282137 1.72607 6.13278
5 3 -1.1939 3.65496 6.12124
6 4 2.71954 2.85561 1.98272
7 3 -4.64195 8.28237 3.95201
8 3 -0.0460444 0.261014 -0.126314
9 4 -1.14223 7.60757 6.03539
10 4 -0.889611 4.83557 1.87088
11 3 1.62755 4.81469 2.23873
12 3 -2.57676 5.60855 5.69315
13 1 -3.63566 7.74302 5.93975
14 4 0.430747 7.00931 2.02312
15 3 7.62319 4.05161 3.84019
16 1 -2.28501 4.1667 8.10865
17 6 6.26653 3.6497 6.03032
18 3 6.19016 1.00599 2.01391
19 3 8.70833 0.81899 1.80674
20 3 4.97138 1.60482 6.16521
21 3 3.93022 3.53964 5.95696
22 3 7.61136 2.80913 2.00022
23 4 4.93793 0.323641 4.04698
24 3 4.81235 0.175959 8.00573
25 4 3.79323 7.9818 6.14782
26 1 4.01696 5.1243 1.94309
27 4 6.5141 5.09766 1.81414
28 1 2.36297 5.75401 6.22436
29 3 1.3829 7.64224 6.18946
30 3 5.14144 7.12795 1.90628
31 1 2.50733 4.31692 4.11818
32 4 2.53124 4.31077 -0.196188
33 7 0.152768 2.77932 3.44064
34 7 2.39564 1.64724 7.746
35 7 2.57526 1.31994 4.58385
36 5 -0.108058 2.74078 0.340969
37 7 -2.19958 6.91444 3.08327
38 7 0.112768 5.5802 7.68625
39 7 0.0955972 5.56965 4.54647
40 7 -2.62442 6.93028 0.0222974
41 7 4.86657 2.91671 3.48841
42 7 7.3639 1.48454 7.75682
43 7 7.40205 1.45762 4.5245
44 7 5.05633 3.17873 0.425339
45 7 2.64991 7.03009 3.60556
46 7 4.76826 5.84462 7.04654
47 5 5.23623 5.70867 4.21633
48 7 2.61988 7.04759 0.505638
ITEM: TIMESTEP
1900
ITEM: NUMBER OF ATOMS
48
ITEM: BOX BOUNDS xy xz yz pp pp pp
-4.7962189756951012e+00 9.9629356045689992e+00 -4.7263238258887101e+00
1.5794642599674158e-01 8.3890904654493692e+00 -3.4786019833635707e-04
-2.0576539741462191e-01 8.1421482774347549e+00 -3.3800186531561050e-03
ITEM: ATOMS id type x y z
1 1 1.32908 3.50547 6.03615
2 1 1.28034 0.944648 2.05229
3 1 3.92549 0.808963 1.73852
4 6 0.0114878 1.58842 6.09774
5 3 -1.24888 3.44113 6.02155
6 4 2.64919 2.84827 1.86976
7 3 -4.74539 8.12928 4.06726
8 3 -0.175873 0.282154 -0.157045
9 4 -0.989275 7.52918 6.19021
10 4 -1.00582 4.79524 1.92273
11 3 1.61712 4.87566 1.98987
12 3 -2.38821 5.55712 5.75056
13 1 -3.55908 7.73626 5.8368
14 4 0.4338 6.8772 1.96076
15 3 7.52037 4.31988 3.76861
16 1 -2.23517 4.13921 8.14237
17 6 6.29467 3.70574 5.99792
18 3 6.09397 0.891042 2.0403
19 3 8.70619 0.809763 2.10498
20 3 4.84747 1.67666 6.23937
21 3 3.71533 3.49179 6.11125
22 3 7.50897 2.88772 2.01872
23 4 5.04748 -0.0764081 4.07959
24 3 4.89515 0.103858 8.15755
25 4 3.79483 7.86804 5.97256
26 1 3.92177 5.14865 1.85257
27 4 6.3445 5.07177 1.78647
28 1 2.36371 5.79674 6.07397
29 3 1.37102 7.74671 6.1718
30 3 5.13282 7.1915 1.81101
31 1 2.81185 4.29571 3.98466
32 4 2.53288 4.37928 -0.156041
33 7 0.242216 2.70783 3.32092
34 7 2.46134 1.66268 7.8545
35 7 2.64074 1.32694 4.74415
36 5 -0.263821 2.752 0.352919
37 7 -2.07819 7.08425 3.15417
38 7 0.0812241 5.49961 7.73045
39 7 0.0835762 5.4838 4.58873
40 7 -2.48002 6.88138 0.101002
41 7 4.8905 2.9459 3.33547
42 7 7.25253 1.55716 7.63367
43 7 7.52637 1.58271 4.48199
44 7 5.00368 3.366 0.354887
45 7 2.8382 6.9633 3.59869
46 7 4.86268 5.89087 7.2015
47 5 5.49262 5.7567 4.07797
48 7 2.57697 7.03657 0.455571
ITEM: TIMESTEP
2000
ITEM: NUMBER OF ATOMS
48
ITEM: BOX BOUNDS xy xz yz pp pp pp
-4.8203336299430868e+00 9.9485940079274080e+00 -4.7647831905971652e+00
1.2450092035029071e-01 8.4225662268305221e+00 -3.4474637946165648e-04
-1.6840284301858183e-01 8.1047857230386295e+00 -3.3497629184403412e-03
ITEM: ATOMS id type x y z
1 1 1.34389 3.49268 6.0972
2 1 1.30059 0.703796 1.96178
3 1 3.88106 0.769246 1.72997
4 6 0.0402705 1.47936 5.99572
5 3 -1.16998 3.51472 6.06826
6 4 2.66714 2.85376 1.95603
7 3 -4.72732 8.4094 3.89585
8 3 0.0363262 0.0924365 -0.126528
9 4 -1.20289 7.64041 6.12329
10 4 -1.09492 4.77515 1.9024
11 3 1.44247 4.96472 2.03185
12 3 -2.43756 5.36874 6.00409
13 1 -3.6738 7.67435 5.98583
14 4 0.198505 6.96811 1.91861
15 3 7.40832 4.25943 3.84075
16 1 -2.45674 4.13283 8.10473
17 6 6.08221 3.6756 6.0062
18 3 6.31104 0.848133 1.87572
19 3 8.55496 0.98789 1.98834
20 3 5.09327 1.5968 6.04667
21 3 3.75603 3.73509 5.95834
22 3 7.51103 2.84335 1.75189
23 4 5.09106 0.240807 4.01501
24 3 4.81767 0.184459 8.16839
25 4 3.74287 7.88727 6.00273
26 1 3.7343 5.14314 1.9312
27 4 6.44013 5.0527 1.79201
28 1 2.36375 5.69148 6.00053
29 3 1.14221 7.62754 6.27189
30 3 5.05435 7.08545 1.66551
31 1 2.52926 4.33604 4.15344
32 4 2.65117 4.28208 -0.0849268
33 7 0.30962 2.85922 3.3664
34 7 2.46454 1.62288 7.91315
35 7 2.59085 1.47999 4.78777
36 5 -0.201377 2.70156 0.435505
37 7 -2.10065 7.12781 3.15192
38 7 0.128273 5.3836 7.81068
39 7 0.0667356 5.60485 4.6162
40 7 -2.3995 6.90109 0.133423
41 7 4.96087 2.92832 3.45283
42 7 7.40514 1.49524 7.50859
43 7 7.51978 1.62834 4.43763
44 7 5.0812 3.05815 0.392478
45 7 2.65304 6.93873 3.62857
46 7 4.89369 5.86374 7.12216
47 5 5.36122 5.77368 4.09306
48 7 2.57567 7.0892 0.469362
ITEM: TIMESTEP
2100
ITEM: NUMBER OF ATOMS
48
ITEM: BOX BOUNDS xy xz yz pp pp pp
-4.8612428437202881e+00 9.9614690730053059e+00 -4.7928234829621328e+00
1.0015381294000254e-01 8.4469730297869141e+00 -3.3860271380871051e-04
-9.4685311143406156e-02 8.0310681911633708e+00 -3.2900673723415801e-03
ITEM: ATOMS id type x y z
1 1 1.22364 3.59148 6.21791
2 1 1.38044 0.809035 2.0067
3 1 3.88492 0.825118 1.75037
4 6 -0.0471854 1.47919 6.054
5 3 -1.12395 3.52848 6.06602
6 4 2.51359 2.80722 2.14978
7 3 -4.82383 8.44887 3.62173
8 3 -0.0138183 0.0270217 -0.0164647
9 4 -1.3407 7.69026 5.95948
10 4 -1.06029 5.05556 1.97693
11 3 1.58369 4.94164 2.15359
12 3 -2.59627 5.4008 5.71933
13 1 -3.84743 7.83003 5.77213
14 4 0.291776 7.03027 2.00481
15 3 7.56499 4.30551 3.88084
16 1 -2.32455 4.08958 8.13404
17 6 6.19757 3.44859 5.90281
18 3 6.15473 0.90769 1.91566
19 3 8.76528 0.740738 1.74064
20 3 4.91201 1.61285 6.04556
21 3 3.65714 3.59328 5.89936
22 3 7.6998 2.93984 1.99153
23 4 4.9268 0.174028 4.0214
24 3 4.98129 -0.00459531 7.92754
25 4 3.80058 7.70811 5.91307
26 1 3.89924 5.06141 2.13206
27 4 6.33067 4.98176 1.83455
28 1 2.28163 5.66874 6.21462
29 3 1.28638 7.73074 6.14623
30 3 5.18535 7.02528 1.81441
31 1 2.38003 4.39999 4.13979
32 4 2.63757 4.26989 0.0205296
33 7 0.122992 3.01737 3.46014
34 7 2.45871 1.60545 7.68422
35 7 2.56908 1.42868 4.63271
36 5 -0.116854 2.60148 0.428355
37 7 -2.31683 7.10544 3.25082
38 7 0.160933 5.45258 7.76191
39 7 0.00481581 5.73975 4.67019
40 7 -2.50935 6.90943 0.0971347
41 7 4.85778 3.04758 3.4315
42 7 7.55331 1.35059 7.52899
43 7 7.5361 1.62325 4.2404
44 7 5.14734 2.96213 0.418489
45 7 2.55323 7.12999 3.57467
46 7 4.94189 5.68686 7.22582
47 5 5.25543 5.92687 4.46894
48 7 2.6557 6.97374 0.539138
ITEM: TIMESTEP
2200
ITEM: NUMBER OF ATOMS
48
ITEM: BOX BOUNDS xy xz yz pp pp pp
-4.9361053446478635e+00 9.9787350913757837e+00 -4.8504266931273854e+00
5.0080254416089452e-02 8.4971119577930949e+00 -3.3187510565143766e-04
-1.3961082841745947e-02 7.9503439628616936e+00 -3.2246978900856088e-03
ITEM: ATOMS id type x y z
1 1 1.12375 3.46881 6.08758
2 1 1.16935 0.744706 1.75433
3 1 3.86315 0.687922 1.77486
4 6 -0.0514472 1.29293 5.91654
5 3 -1.26906 3.35166 6.05857
6 4 2.62452 2.86743 2.10983
7 3 -5.05373 8.47384 3.75862
8 3 -0.044788 -0.0112312 0.137945
9 4 -1.25067 7.86047 5.89411
10 4 -1.04828 4.96173 2.10405
11 3 1.51536 5.01646 2.37783
12 3 -2.63295 5.47049 5.58266
13 1 -3.68864 7.8397 5.69176
14 4 0.336827 7.09361 2.04332
15 3 7.48716 4.17695 3.94998
16 1 -2.22855 4.05429 7.87337
17 6 6.26957 3.6629 6.00332
18 3 6.26745 0.883623 1.95984
19 3 8.78404 0.97667 2.21692
20 3 4.85012 1.71198 5.91091
21 3 3.59594 3.44823 6.04357
22 3 7.72145 2.80307 1.83676
23 4 4.93404 0.188001 3.97116
24 3 4.94377 -0.02455 7.88456
25 4 3.78125 7.73854 5.93308
26 1 3.9177 5.13645 2.05347
27 4 6.4206 5.06798 1.92956
28 1 2.44556 5.75254 6.10179
29 3 1.16641 7.79565 6.10381
30 3 5.05778 7.07624 1.92904
31 1 2.56842 4.42815 4.18409
32 4 2.46512 4.2503 0.0850043
33 7 -0.00824134 2.99954 3.48503
34 7 2.53618 1.51778 7.59061
35 7 2.35773 1.43098 4.27985
36 5 0.0374522 2.66617 0.511123
37 7 -2.29268 7.1337 3.05518
38 7 0.0987029 5.59888 7.7911
39 7 -0.0906657 5.82003 4.71159
40 7 -2.59649 6.89231 0.0471139
41 7 4.90642 3.06605 3.44698
42 7 7.4188 1.24592 7.35256
43 7 7.32098 1.48863 4.45756
44 7 5.1379 2.92397 0.642207
45 7 2.63677 7.09655 3.67417
46 7 4.81623 5.61043 7.37346
47 5 5.25982 5.83999 4.17313
48 7 2.61043 7.07854 0.608712
ITEM: TIMESTEP
2300
ITEM: NUMBER OF ATOMS
48
ITEM: BOX BOUNDS xy xz yz pp pp pp
-4.9592872064397016e+00 9.9750888892547565e+00 -4.8772525951452206e+00
2.6709473608223674e-02 8.5204617323302188e+00 -3.3403700067619573e-04
-3.9901551350466795e-02 7.9762844313704138e+00 -3.2457041608368905e-03
ITEM: ATOMS id type x y z
1 1 1.16627 3.5182 5.98029
2 1 1.19718 0.895224 1.97705
3 1 3.80181 0.685623 1.70864
4 6 -0.00462989 1.24771 5.98485
5 3 -1.12753 3.61765 5.99209
6 4 2.53548 2.81253 1.90062
7 3 -4.9388 8.57823 3.81708
8 3 -0.0239362 -0.0170986 0.111762
9 4 -1.39645 7.96726 5.75439
10 4 -1.09641 4.9088 1.93097
11 3 1.58428 4.92461 2.33225
12 3 -2.58787 5.67153 5.69794
13 1 -3.82642 7.66605 5.84804
14 4 0.219238 6.99332 2.13735
15 3 7.4771 4.14071 3.82992
16 1 -2.38682 4.12732 7.87626
17 6 6.26147 3.63153 6.05017
18 3 6.33122 0.67888 2.03177
19 3 8.57083 0.861 1.96156
20 3 4.88315 1.58914 6.12363
21 3 3.68654 3.48114 5.97417
22 3 7.67062 2.95185 1.98624
23 4 5.05518 0.225306 4.04005
24 3 4.94637 0.051843 7.90802
25 4 3.66137 7.74804 5.96454
26 1 3.82227 5.05714 1.91639
27 4 6.34403 5.04075 1.82706
28 1 2.08732 5.67681 5.99525
29 3 1.14921 7.81124 6.24932
30 3 5.16094 7.13266 1.88741
31 1 2.50737 4.20524 4.16578
32 4 2.40852 4.2498 0.0799997
33 7 0.00111876 2.83627 3.48116
34 7 2.46597 1.41088 7.45503
35 7 2.45683 1.36714 4.29563
36 5 -0.0461226 2.73386 0.433016
37 7 -2.26709 7.13611 2.98888
38 7 0.115582 5.53426 7.81636
39 7 -0.076522 5.80212 4.67871
40 7 -2.5717 6.88446 0.0301997
41 7 4.92052 3.05865 3.59292
42 7 7.58287 1.54546 7.62864
43 7 7.45134 1.46776 4.54424
44 7 5.03725 2.95169 0.556884
45 7 2.60782 6.98565 3.7551
46 7 4.67427 5.71806 7.14696
47 5 5.38015 5.88536 4.24344
48 7 2.5641 7.19154 0.712645
ITEM: TIMESTEP
2400
ITEM: NUMBER OF ATOMS
48
ITEM: BOX BOUNDS xy xz yz pp pp pp
-4.8678871677387354e+00 9.9147901854919542e+00 -4.8461438794427023e+00
5.3715374566349783e-02 8.4933841154318301e+00 -3.4141776503610136e-04
-1.2846296772631535e-01 8.0648458477462075e+00 -3.3174201011207786e-03
ITEM: ATOMS id type x y z
1 1 1.02211 3.43486 6.15891
2 1 1.32147 0.719469 1.91238
3 1 3.88719 0.629953 1.75103
4 6 0.0377525 1.30674 6.07303
5 3 -1.09348 3.51053 6.08547
6 4 2.67405 2.72778 1.99029
7 3 -4.87118 8.33172 3.71254
8 3 -0.0229915 0.0698997 0.0592066
9 4 -1.23189 7.64141 6.1449
10 4 -1.02105 4.99097 1.92624
11 3 1.54247 4.84029 1.93935
12 3 -2.62853 5.61135 5.65662
13 1 -3.87412 7.88649 5.80135
14 4 0.435775 7.05898 2.05134
15 3 7.54169 4.29309 3.8897
16 1 -2.36596 4.20747 8.11765
17 6 6.2675 3.72406 5.9967
18 3 6.20704 0.923541 2.06315
19 3 8.45867 0.792133 2.12582
20 3 5.07997 1.71764 6.0453
21 3 3.71764 3.42058 5.87967
22 3 7.41361 2.99677 2.09202
23 4 5.02939 0.133455 4.03957
24 3 4.92366 -0.000984056 8.17597
25 4 3.59303 7.95314 6.27584
26 1 3.80784 5.10736 1.99716
27 4 6.30122 5.03531 1.75711
28 1 2.24185 5.61903 6.05946
29 3 1.10289 7.96331 6.27389
30 3 4.94455 7.10119 1.68644
31 1 2.32309 4.13065 4.02408
32 4 2.54355 4.16965 -0.136389
33 7 0.136022 2.97719 3.38303
34 7 2.43125 1.46678 7.61358
35 7 2.68814 1.34801 4.55974
36 5 0.148076 2.72998 0.55429
37 7 -2.3182 7.13484 3.19369
38 7 0.145646 5.62531 7.68795
39 7 -0.00978672 5.78736 4.46955
40 7 -2.57949 6.90211 0.0733461
41 7 4.97182 2.97586 3.42849
42 7 7.44156 1.51082 7.73504
43 7 7.47284 1.47517 4.51531
44 7 4.9278 3.02133 0.471374
45 7 2.70534 6.92867 3.66224
46 7 4.7274 5.76438 7.05265
47 5 5.34753 5.85365 4.17656
48 7 2.60654 7.08653 0.459101
ITEM: TIMESTEP
2500
ITEM: NUMBER OF ATOMS
48
ITEM: BOX BOUNDS xy xz yz pp pp pp
-4.7802313486145751e+00 9.9049702056609537e+00 -4.7683029662523300e+00
1.2142028256395332e-01 8.4256299064009426e+00 -3.4649166224742697e-04
-1.8934440244891085e-01 8.1257272824687075e+00 -3.3667211344108714e-03
ITEM: ATOMS id type x y z
1 1 1.3456 3.54533 6.13177
2 1 1.22885 0.796614 1.88935
3 1 3.87916 0.635663 1.77342
4 6 -0.0054712 1.54671 6.2569
5 3 -1.23981 3.53952 6.04434
6 4 2.60894 2.77364 2.08058
7 3 -4.75954 8.45478 3.77124
8 3 -0.0629791 0.163893 -0.0849895
9 4 -1.22348 7.6314 6.15758
10 4 -1.03849 5.05892 1.81631
11 3 1.34454 4.75632 1.78386
12 3 -2.41896 5.50092 5.82809
13 1 -3.76197 7.73818 5.79258
14 4 0.461325 7.04223 2.00411
15 3 7.62249 4.1747 3.7939
16 1 -2.18143 4.18428 8.13309
17 6 6.25086 3.64616 5.97093
18 3 6.38589 0.831986 2.03866
19 3 8.75145 0.897792 1.99448
20 3 5.00266 1.61703 6.13063
21 3 3.60846 3.67599 5.93773
22 3 7.72462 3.02768 1.94497
23 4 4.98324 0.0989355 4.00571
24 3 4.97971 0.145242 8.22174
25 4 3.58528 7.84757 5.99413
26 1 3.68991 4.99642 1.9687
27 4 6.34386 5.0343 1.91847
28 1 2.5058 5.70021 6.0798
29 3 1.12348 7.95851 6.35533
30 3 4.89081 7.00261 1.76573
31 1 2.60914 4.27272 4.03719
32 4 2.54509 4.17443 -0.278967
33 7 0.226734 2.7704 3.60516
34 7 2.62775 1.46728 7.85044
35 7 2.57841 1.39432 4.66144
36 5 0.143716 2.84073 0.483627
37 7 -2.11511 7.10557 3.01496
38 7 -0.00493574 5.58093 7.57289
39 7 0.135167 5.70526 4.65152
40 7 -2.65617 6.84311 0.118907
41 7 4.96201 2.97591 3.34466
42 7 7.40799 1.50722 7.79178
43 7 7.44887 1.50519 4.56289
44 7 5.05917 3.26064 0.359658
45 7 2.74444 6.98765 3.61332
46 7 4.81329 5.78155 7.09957
47 5 5.36165 5.71184 4.12095
48 7 2.53572 6.96326 0.382422
ITEM: TIMESTEP
2600
ITEM: NUMBER OF ATOMS
48
ITEM: BOX BOUNDS xy xz yz pp pp pp
-4.7466155442146425e+00 9.8943048233627344e+00 -4.7453528004779528e+00
1.4139903330530942e-01 8.4056536462899150e+00 -3.4623533491673987e-04
-1.8626874383761488e-01 8.1226516238573243e+00 -3.3642305040852988e-03
ITEM: ATOMS id type x y z
1 1 1.44072 3.49427 6.05109
2 1 1.19973 0.65937 1.91207
3 1 4.07474 0.898775 1.73234
4 6 0.148492 1.67511 6.37385
5 3 -1.15622 3.57183 6.12579
6 4 2.53204 2.80704 1.96728
7 3 -4.63718 8.27154 3.96518
8 3 0.00604922 0.166262 -0.0400755
9 4 -1.27016 7.72463 6.132
10 4 -1.13942 4.91007 1.76145
11 3 1.27242 4.74544 2.09291
12 3 -2.35429 5.43825 5.74692
13 1 -3.56682 7.68309 5.75871
14 4 0.408827 6.92278 2.07514
15 3 7.48722 4.18142 3.83165
16 1 -2.38941 4.08315 8.11278
17 6 6.05455 3.6167 5.97972
18 3 6.34066 0.795009 1.84967
19 3 8.5053 0.865124 1.86456
20 3 4.94585 1.63583 6.17614
21 3 3.82729 3.56769 5.92201
22 3 7.79672 2.87886 1.91462
23 4 4.99626 0.170703 4.03324
24 3 4.93457 0.116836 8.21706
25 4 3.71638 7.95564 5.9582
26 1 3.83114 5.01362 1.88076
27 4 6.3045 5.00224 1.88295
28 1 2.11789 5.76894 6.15114
29 3 1.20919 7.75371 6.24288
30 3 5.14309 6.95485 1.80458
31 1 2.75782 4.42683 3.99318
32 4 2.50577 4.23788 -0.0919148
33 7 0.184998 2.93859 3.52747
34 7 2.64698 1.61704 7.79866
35 7 2.55103 1.42155 4.70198
36 5 0.213461 2.87729 0.66819
37 7 -2.05508 7.13777 3.15372
38 7 0.035028 5.55336 7.74897
39 7 0.176089 5.66648 4.58553
40 7 -2.58614 6.86243 0.00224828
41 7 4.95133 2.86116 3.37867
42 7 7.46819 1.60182 7.66836
43 7 7.43779 1.54331 4.50842
44 7 5.15719 3.18842 0.347322
45 7 2.70418 6.89879 3.49187
46 7 4.74147 5.88285 7.09826
47 5 5.37704 5.76366 4.1942
48 7 2.54915 6.9379 0.416334
ITEM: TIMESTEP
2700
ITEM: NUMBER OF ATOMS
48
ITEM: BOX BOUNDS xy xz yz pp pp pp
-4.8554364750778429e+00 9.9897437570297516e+00 -4.7587415298024691e+00
1.2981064245382162e-01 8.4173074505444045e+00 -3.3950320658413544e-04
-1.0549027818192407e-01 8.0418731582015628e+00 -3.2988171010904506e-03
ITEM: ATOMS id type x y z
1 1 1.25597 3.61134 6.05054
2 1 1.26389 0.950956 2.14578
3 1 3.95049 0.784819 1.74999
4 6 -0.00870359 1.60832 6.03481
5 3 -1.15286 3.60514 6.10282
6 4 2.62703 2.81589 2.06134
7 3 -4.85562 8.25166 3.85869
8 3 -0.0807786 0.162881 0.00489534
9 4 -1.1025 7.5724 5.97778
10 4 -1.08574 4.95709 2.00072